[ atomtypes ]
protein_1 0.0 0 A 0.00000000 0.00000000 
protein_2 0.0 0 A 0.00000000 0.00000000 
protein_3 0.0 0 A 0.00000000 0.00000000 
protein_4 0.0 0 A 0.00000000 0.00000000 
protein_5 0.0 0 A 0.00000000 0.00000000 
protein_6 0.0 0 A 0.00000000 0.00000000 
protein_7 0.0 0 A 0.00000000 0.00000000 
protein_8 0.0 0 A 0.00000000 0.00000000 
protein_9 0.0 0 A 0.00000000 0.00000000 
protein_10 0.0 0 A 0.00000000 0.00000000 
protein_11 0.0 0 A 0.00000000 0.00000000 
protein_12 0.0 0 A 0.00000000 0.00000000 
protein_13 0.0 0 A 0.00000000 0.00000000 
protein_14 0.0 0 A 0.00000000 0.00000000 
protein_15 0.0 0 A 0.00000000 0.00000000 
protein_16 0.0 0 A 0.00000000 0.00000000 
protein_17 0.0 0 A 0.00000000 0.00000000 
protein_18 0.0 0 A 0.00000000 0.00000000 
protein_19 0.0 0 A 0.00000000 0.00000000 
protein_20 0.0 0 A 0.00000000 0.00000000 
protein_21 0.0 0 A 0.00000000 0.00000000 
protein_22 0.0 0 A 0.00000000 0.00000000 
protein_23 0.0 0 A 0.00000000 0.00000000 
protein_24 0.0 0 A 0.00000000 0.00000000 
protein_25 0.0 0 A 0.00000000 0.00000000 
protein_26 0.0 0 A 0.00000000 0.00000000 
protein_27 0.0 0 A 0.00000000 0.00000000 
protein_28 0.0 0 A 0.00000000 0.00000000 
protein_29 0.0 0 A 0.00000000 0.00000000 
protein_30 0.0 0 A 0.00000000 0.00000000 
protein_31 0.0 0 A 0.00000000 0.00000000 
protein_32 0.0 0 A 0.00000000 0.00000000 
protein_33 0.0 0 A 0.00000000 0.00000000 
protein_34 0.0 0 A 0.00000000 0.00000000 
protein_35 0.0 0 A 0.00000000 0.00000000 
protein_36 0.0 0 A 0.00000000 0.00000000 
protein_37 0.0 0 A 0.00000000 0.00000000 
protein_38 0.0 0 A 0.00000000 0.00000000 
protein_39 0.0 0 A 0.00000000 0.00000000 
protein_40 0.0 0 A 0.00000000 0.00000000 
protein_41 0.0 0 A 0.00000000 0.00000000 
protein_42 0.0 0 A 0.00000000 0.00000000 
protein_43 0.0 0 A 0.00000000 0.00000000 
protein_44 0.0 0 A 0.00000000 0.00000000 
protein_45 0.0 0 A 0.00000000 0.00000000 
protein_46 0.0 0 A 0.00000000 0.00000000 
protein_47 0.0 0 A 0.00000000 0.00000000 
protein_48 0.0 0 A 0.00000000 0.00000000 
protein_49 0.0 0 A 0.00000000 0.00000000 
protein_50 0.0 0 A 0.00000000 0.00000000 
protein_51 0.0 0 A 0.00000000 0.00000000 
protein_52 0.0 0 A 0.00000000 0.00000000 
protein_53 0.0 0 A 0.00000000 0.00000000 
protein_54 0.0 0 A 0.00000000 0.00000000 
protein_55 0.0 0 A 0.00000000 0.00000000 
protein_56 0.0 0 A 0.00000000 0.00000000 
protein_57 0.0 0 A 0.00000000 0.00000000 
protein_58 0.0 0 A 0.00000000 0.00000000 
protein_59 0.0 0 A 0.00000000 0.00000000 
protein_60 0.0 0 A 0.00000000 0.00000000 
protein_61 0.0 0 A 0.00000000 0.00000000 
protein_62 0.0 0 A 0.00000000 0.00000000 
protein_63 0.0 0 A 0.00000000 0.00000000 
protein_64 0.0 0 A 0.00000000 0.00000000 
protein_65 0.0 0 A 0.00000000 0.00000000 
protein_66 0.0 0 A 0.00000000 0.00000000 
protein_67 0.0 0 A 0.00000000 0.00000000 
protein_68 0.0 0 A 0.00000000 0.00000000 
protein_69 0.0 0 A 0.00000000 0.00000000 
protein_70 0.0 0 A 0.00000000 0.00000000 
protein_71 0.0 0 A 0.00000000 0.00000000 
protein_72 0.0 0 A 0.00000000 0.00000000 
protein_73 0.0 0 A 0.00000000 0.00000000 
protein_74 0.0 0 A 0.00000000 0.00000000 
protein_75 0.0 0 A 0.00000000 0.00000000 
protein_76 0.0 0 A 0.00000000 0.00000000 
protein_77 0.0 0 A 0.00000000 0.00000000 
protein_78 0.0 0 A 0.00000000 0.00000000 
protein_79 0.0 0 A 0.00000000 0.00000000 
protein_80 0.0 0 A 0.00000000 0.00000000 
protein_81 0.0 0 A 0.00000000 0.00000000 
protein_82 0.0 0 A 0.00000000 0.00000000 
protein_83 0.0 0 A 0.00000000 0.00000000 
protein_84 0.0 0 A 0.00000000 0.00000000 
protein_85 0.0 0 A 0.00000000 0.00000000 
protein_86 0.0 0 A 0.00000000 0.00000000 
protein_87 0.0 0 A 0.00000000 0.00000000 
protein_88 0.0 0 A 0.00000000 0.00000000 
protein_89 0.0 0 A 0.00000000 0.00000000 
protein_90 0.0 0 A 0.00000000 0.00000000 
protein_91 0.0 0 A 0.00000000 0.00000000 
protein_92 0.0 0 A 0.00000000 0.00000000 
protein_93 0.0 0 A 0.00000000 0.00000000 
protein_94 0.0 0 A 0.00000000 0.00000000 
protein_95 0.0 0 A 0.00000000 0.00000000 
protein_96 0.0 0 A 0.00000000 0.00000000 
protein_97 0.0 0 A 0.00000000 0.00000000 
protein_98 0.0 0 A 0.00000000 0.00000000 
protein_99 0.0 0 A 0.00000000 0.00000000 
protein_100 0.0 0 A 0.00000000 0.00000000 
protein_101 0.0 0 A 0.00000000 0.00000000 
protein_102 0.0 0 A 0.00000000 0.00000000 
protein_103 0.0 0 A 0.00000000 0.00000000 
protein_104 0.0 0 A 0.00000000 0.00000000 
protein_105 0.0 0 A 0.00000000 0.00000000 
protein_106 0.0 0 A 0.00000000 0.00000000 
protein_107 0.0 0 A 0.00000000 0.00000000 
protein_108 0.0 0 A 0.00000000 0.00000000 
protein_109 0.0 0 A 0.00000000 0.00000000 
protein_110 0.0 0 A 0.00000000 0.00000000 
protein_111 0.0 0 A 0.00000000 0.00000000 
protein_112 0.0 0 A 0.00000000 0.00000000 
protein_113 0.0 0 A 0.00000000 0.00000000 
protein_114 0.0 0 A 0.00000000 0.00000000 
protein_115 0.0 0 A 0.00000000 0.00000000 
protein_116 0.0 0 A 0.00000000 0.00000000 
protein_117 0.0 0 A 0.00000000 0.00000000 
protein_118 0.0 0 A 0.00000000 0.00000000 
protein_119 0.0 0 A 0.00000000 0.00000000 
protein_120 0.0 0 A 0.00000000 0.00000000 
protein_121 0.0 0 A 0.00000000 0.00000000 
protein_122 0.0 0 A 0.00000000 0.00000000 
protein_123 0.0 0 A 0.00000000 0.00000000 
protein_124 0.0 0 A 0.00000000 0.00000000 
protein_125 0.0 0 A 0.00000000 0.00000000 
protein_126 0.0 0 A 0.00000000 0.00000000 
protein_127 0.0 0 A 0.00000000 0.00000000 
protein_128 0.0 0 A 0.00000000 0.00000000 
protein_129 0.0 0 A 0.00000000 0.00000000 
protein_130 0.0 0 A 0.00000000 0.00000000 
protein_131 0.0 0 A 0.00000000 0.00000000 
protein_132 0.0 0 A 0.00000000 0.00000000 
protein_133 0.0 0 A 0.00000000 0.00000000 
protein_134 0.0 0 A 0.00000000 0.00000000 
protein_135 0.0 0 A 0.00000000 0.00000000 
protein_136 0.0 0 A 0.00000000 0.00000000 
protein_137 0.0 0 A 0.00000000 0.00000000 
protein_138 0.0 0 A 0.00000000 0.00000000 
protein_139 0.0 0 A 0.00000000 0.00000000 
protein_140 0.0 0 A 0.00000000 0.00000000 
protein_141 0.0 0 A 0.00000000 0.00000000 
protein_142 0.0 0 A 0.00000000 0.00000000 
protein_143 0.0 0 A 0.00000000 0.00000000 
protein_144 0.0 0 A 0.00000000 0.00000000 
protein_145 0.0 0 A 0.00000000 0.00000000 
protein_146 0.0 0 A 0.00000000 0.00000000 
protein_147 0.0 0 A 0.00000000 0.00000000 
protein_148 0.0 0 A 0.00000000 0.00000000 
protein_149 0.0 0 A 0.00000000 0.00000000 
protein_150 0.0 0 A 0.00000000 0.00000000 
protein_151 0.0 0 A 0.00000000 0.00000000 
protein_152 0.0 0 A 0.00000000 0.00000000 
protein_153 0.0 0 A 0.00000000 0.00000000 
protein_154 0.0 0 A 0.00000000 0.00000000 
protein_155 0.0 0 A 0.00000000 0.00000000 
protein_156 0.0 0 A 0.00000000 0.00000000 
protein_157 0.0 0 A 0.00000000 0.00000000 
protein_158 0.0 0 A 0.00000000 0.00000000 
protein_159 0.0 0 A 0.00000000 0.00000000 
protein_160 0.0 0 A 0.00000000 0.00000000 
protein_161 0.0 0 A 0.00000000 0.00000000 
protein_162 0.0 0 A 0.00000000 0.00000000 
protein_163 0.0 0 A 0.00000000 0.00000000 
protein_164 0.0 0 A 0.00000000 0.00000000 
protein_165 0.0 0 A 0.00000000 0.00000000 
protein_166 0.0 0 A 0.00000000 0.00000000 
protein_167 0.0 0 A 0.00000000 0.00000000 
protein_168 0.0 0 A 0.00000000 0.00000000 
protein_169 0.0 0 A 0.00000000 0.00000000 
protein_170 0.0 0 A 0.00000000 0.00000000 
protein_171 0.0 0 A 0.00000000 0.00000000 
protein_172 0.0 0 A 0.00000000 0.00000000 
protein_173 0.0 0 A 0.00000000 0.00000000 
protein_174 0.0 0 A 0.00000000 0.00000000 
protein_175 0.0 0 A 0.00000000 0.00000000 
protein_176 0.0 0 A 0.00000000 0.00000000 
protein_177 0.0 0 A 0.00000000 0.00000000 
protein_178 0.0 0 A 0.00000000 0.00000000 
protein_179 0.0 0 A 0.00000000 0.00000000 
protein_180 0.0 0 A 0.00000000 0.00000000 
protein_181 0.0 0 A 0.00000000 0.00000000 
protein_182 0.0 0 A 0.00000000 0.00000000 
protein_183 0.0 0 A 0.00000000 0.00000000 
protein_184 0.0 0 A 0.00000000 0.00000000 
protein_185 0.0 0 A 0.00000000 0.00000000 
protein_186 0.0 0 A 0.00000000 0.00000000 
protein_187 0.0 0 A 0.00000000 0.00000000 
protein_188 0.0 0 A 0.00000000 0.00000000 
protein_189 0.0 0 A 0.00000000 0.00000000 
protein_190 0.0 0 A 0.00000000 0.00000000 
protein_191 0.0 0 A 0.00000000 0.00000000 
protein_192 0.0 0 A 0.00000000 0.00000000 
protein_193 0.0 0 A 0.00000000 0.00000000 
protein_194 0.0 0 A 0.00000000 0.00000000 
protein_195 0.0 0 A 0.00000000 0.00000000 
protein_196 0.0 0 A 0.00000000 0.00000000 
protein_197 0.0 0 A 0.00000000 0.00000000 
protein_198 0.0 0 A 0.00000000 0.00000000 
protein_199 0.0 0 A 0.00000000 0.00000000 
protein_200 0.0 0 A 0.00000000 0.00000000 
protein_201 0.0 0 A 0.00000000 0.00000000 
protein_202 0.0 0 A 0.00000000 0.00000000 
protein_203 0.0 0 A 0.00000000 0.00000000 
protein_204 0.0 0 A 0.00000000 0.00000000 
protein_205 0.0 0 A 0.00000000 0.00000000 
protein_206 0.0 0 A 0.00000000 0.00000000 
protein_207 0.0 0 A 0.00000000 0.00000000 
protein_208 0.0 0 A 0.00000000 0.00000000 
protein_209 0.0 0 A 0.00000000 0.00000000 
protein_210 0.0 0 A 0.00000000 0.00000000 
protein_211 0.0 0 A 0.00000000 0.00000000 
protein_212 0.0 0 A 0.00000000 0.00000000 
protein_213 0.0 0 A 0.00000000 0.00000000 
protein_214 0.0 0 A 0.00000000 0.00000000 
protein_215 0.0 0 A 0.00000000 0.00000000 
protein_216 0.0 0 A 0.00000000 0.00000000 
protein_217 0.0 0 A 0.00000000 0.00000000 
protein_218 0.0 0 A 0.00000000 0.00000000 
protein_219 0.0 0 A 0.00000000 0.00000000 
protein_220 0.0 0 A 0.00000000 0.00000000 
protein_221 0.0 0 A 0.00000000 0.00000000 
protein_222 0.0 0 A 0.00000000 0.00000000 
protein_223 0.0 0 A 0.00000000 0.00000000 
protein_224 0.0 0 A 0.00000000 0.00000000 
protein_225 0.0 0 A 0.00000000 0.00000000 
protein_226 0.0 0 A 0.00000000 0.00000000 
protein_227 0.0 0 A 0.00000000 0.00000000 
protein_228 0.0 0 A 0.00000000 0.00000000 
protein_229 0.0 0 A 0.00000000 0.00000000 
protein_230 0.0 0 A 0.00000000 0.00000000 
protein_231 0.0 0 A 0.00000000 0.00000000 
protein_232 0.0 0 A 0.00000000 0.00000000 
protein_233 0.0 0 A 0.00000000 0.00000000 
protein_234 0.0 0 A 0.00000000 0.00000000 
protein_235 0.0 0 A 0.00000000 0.00000000 
protein_236 0.0 0 A 0.00000000 0.00000000 
protein_237 0.0 0 A 0.00000000 0.00000000 
protein_238 0.0 0 A 0.00000000 0.00000000 
protein_239 0.0 0 A 0.00000000 0.00000000 
protein_240 0.0 0 A 0.00000000 0.00000000 
protein_241 0.0 0 A 0.00000000 0.00000000 
protein_242 0.0 0 A 0.00000000 0.00000000 
protein_243 0.0 0 A 0.00000000 0.00000000 
protein_244 0.0 0 A 0.00000000 0.00000000 
protein_245 0.0 0 A 0.00000000 0.00000000 
protein_246 0.0 0 A 0.00000000 0.00000000 
protein_247 0.0 0 A 0.00000000 0.00000000 
protein_248 0.0 0 A 0.00000000 0.00000000 
protein_249 0.0 0 A 0.00000000 0.00000000 
protein_250 0.0 0 A 0.00000000 0.00000000 
protein_251 0.0 0 A 0.00000000 0.00000000 
protein_252 0.0 0 A 0.00000000 0.00000000 
protein_253 0.0 0 A 0.00000000 0.00000000 
protein_254 0.0 0 A 0.00000000 0.00000000 
protein_255 0.0 0 A 0.00000000 0.00000000 
protein_256 0.0 0 A 0.00000000 0.00000000 
protein_257 0.0 0 A 0.00000000 0.00000000 
protein_258 0.0 0 A 0.00000000 0.00000000 
protein_259 0.0 0 A 0.00000000 0.00000000 
protein_260 0.0 0 A 0.00000000 0.00000000 
protein_261 0.0 0 A 0.00000000 0.00000000 
protein_262 0.0 0 A 0.00000000 0.00000000 
protein_263 0.0 0 A 0.00000000 0.00000000 
protein_264 0.0 0 A 0.00000000 0.00000000 
protein_265 0.0 0 A 0.00000000 0.00000000 
protein_266 0.0 0 A 0.00000000 0.00000000 
protein_267 0.0 0 A 0.00000000 0.00000000 
protein_268 0.0 0 A 0.00000000 0.00000000 
protein_269 0.0 0 A 0.00000000 0.00000000 
protein_270 0.0 0 A 0.00000000 0.00000000 
protein_271 0.0 0 A 0.00000000 0.00000000 
protein_272 0.0 0 A 0.00000000 0.00000000 
protein_273 0.0 0 A 0.00000000 0.00000000 
protein_274 0.0 0 A 0.00000000 0.00000000 
protein_275 0.0 0 A 0.00000000 0.00000000 
protein_276 0.0 0 A 0.00000000 0.00000000 
protein_277 0.0 0 A 0.00000000 0.00000000 
protein_278 0.0 0 A 0.00000000 0.00000000 
protein_279 0.0 0 A 0.00000000 0.00000000 
protein_280 0.0 0 A 0.00000000 0.00000000 
protein_281 0.0 0 A 0.00000000 0.00000000 
protein_282 0.0 0 A 0.00000000 0.00000000 
protein_283 0.0 0 A 0.00000000 0.00000000 
protein_284 0.0 0 A 0.00000000 0.00000000 
protein_285 0.0 0 A 0.00000000 0.00000000 
protein_286 0.0 0 A 0.00000000 0.00000000 
protein_287 0.0 0 A 0.00000000 0.00000000 
protein_288 0.0 0 A 0.00000000 0.00000000 
protein_289 0.0 0 A 0.00000000 0.00000000 
protein_290 0.0 0 A 0.00000000 0.00000000 
protein_291 0.0 0 A 0.00000000 0.00000000 
protein_292 0.0 0 A 0.00000000 0.00000000 
protein_293 0.0 0 A 0.00000000 0.00000000 
protein_294 0.0 0 A 0.00000000 0.00000000 
protein_295 0.0 0 A 0.00000000 0.00000000 
protein_296 0.0 0 A 0.00000000 0.00000000 
protein_297 0.0 0 A 0.00000000 0.00000000 
protein_298 0.0 0 A 0.00000000 0.00000000 
protein_299 0.0 0 A 0.00000000 0.00000000 
protein_300 0.0 0 A 0.00000000 0.00000000 
protein_301 0.0 0 A 0.00000000 0.00000000 
protein_302 0.0 0 A 0.00000000 0.00000000 
protein_303 0.0 0 A 0.00000000 0.00000000 
protein_304 0.0 0 A 0.00000000 0.00000000 
protein_305 0.0 0 A 0.00000000 0.00000000 
protein_306 0.0 0 A 0.00000000 0.00000000 
protein_307 0.0 0 A 0.00000000 0.00000000 
protein_308 0.0 0 A 0.00000000 0.00000000 
protein_309 0.0 0 A 0.00000000 0.00000000 
protein_310 0.0 0 A 0.00000000 0.00000000 
protein_311 0.0 0 A 0.00000000 0.00000000 
protein_312 0.0 0 A 0.00000000 0.00000000 
protein_313 0.0 0 A 0.00000000 0.00000000 
protein_314 0.0 0 A 0.00000000 0.00000000 
protein_315 0.0 0 A 0.00000000 0.00000000 
protein_316 0.0 0 A 0.00000000 0.00000000 
protein_317 0.0 0 A 0.00000000 0.00000000 
protein_318 0.0 0 A 0.00000000 0.00000000 
protein_319 0.0 0 A 0.00000000 0.00000000 
protein_320 0.0 0 A 0.00000000 0.00000000 
protein_321 0.0 0 A 0.00000000 0.00000000 
protein_322 0.0 0 A 0.00000000 0.00000000 
protein_323 0.0 0 A 0.00000000 0.00000000 
protein_324 0.0 0 A 0.00000000 0.00000000 
protein_325 0.0 0 A 0.00000000 0.00000000 
protein_326 0.0 0 A 0.00000000 0.00000000 
protein_327 0.0 0 A 0.00000000 0.00000000 
protein_328 0.0 0 A 0.00000000 0.00000000 
protein_329 0.0 0 A 0.00000000 0.00000000 
protein_330 0.0 0 A 0.00000000 0.00000000 
protein_331 0.0 0 A 0.00000000 0.00000000 
protein_332 0.0 0 A 0.00000000 0.00000000 
protein_333 0.0 0 A 0.00000000 0.00000000 
protein_334 0.0 0 A 0.00000000 0.00000000 
protein_335 0.0 0 A 0.00000000 0.00000000 
protein_336 0.0 0 A 0.00000000 0.00000000 
protein_337 0.0 0 A 0.00000000 0.00000000 
protein_338 0.0 0 A 0.00000000 0.00000000 
protein_339 0.0 0 A 0.00000000 0.00000000 
protein_340 0.0 0 A 0.00000000 0.00000000 
protein_341 0.0 0 A 0.00000000 0.00000000 
protein_342 0.0 0 A 0.00000000 0.00000000 
protein_343 0.0 0 A 0.00000000 0.00000000 
protein_344 0.0 0 A 0.00000000 0.00000000 
protein_345 0.0 0 A 0.00000000 0.00000000 
protein_346 0.0 0 A 0.00000000 0.00000000 
protein_347 0.0 0 A 0.00000000 0.00000000 
protein_348 0.0 0 A 0.00000000 0.00000000 
protein_349 0.0 0 A 0.00000000 0.00000000 
protein_350 0.0 0 A 0.00000000 0.00000000 
protein_351 0.0 0 A 0.00000000 0.00000000 
protein_352 0.0 0 A 0.00000000 0.00000000 
protein_353 0.0 0 A 0.00000000 0.00000000 
protein_354 0.0 0 A 0.00000000 0.00000000 
protein_355 0.0 0 A 0.00000000 0.00000000 
protein_356 0.0 0 A 0.00000000 0.00000000 
protein_357 0.0 0 A 0.00000000 0.00000000 
protein_358 0.0 0 A 0.00000000 0.00000000 
protein_359 0.0 0 A 0.00000000 0.00000000 
protein_360 0.0 0 A 0.00000000 0.00000000 
protein_361 0.0 0 A 0.00000000 0.00000000 
protein_362 0.0 0 A 0.00000000 0.00000000 
protein_363 0.0 0 A 0.00000000 0.00000000 
protein_364 0.0 0 A 0.00000000 0.00000000 
protein_365 0.0 0 A 0.00000000 0.00000000 
protein_366 0.0 0 A 0.00000000 0.00000000 
protein_367 0.0 0 A 0.00000000 0.00000000 
protein_368 0.0 0 A 0.00000000 0.00000000 
protein_369 0.0 0 A 0.00000000 0.00000000 
protein_370 0.0 0 A 0.00000000 0.00000000 
protein_371 0.0 0 A 0.00000000 0.00000000 
protein_372 0.0 0 A 0.00000000 0.00000000 
protein_373 0.0 0 A 0.00000000 0.00000000 
protein_374 0.0 0 A 0.00000000 0.00000000 
protein_375 0.0 0 A 0.00000000 0.00000000 
protein_376 0.0 0 A 0.00000000 0.00000000 
protein_377 0.0 0 A 0.00000000 0.00000000 
protein_378 0.0 0 A 0.00000000 0.00000000 
protein_379 0.0 0 A 0.00000000 0.00000000 
protein_380 0.0 0 A 0.00000000 0.00000000 
protein_381 0.0 0 A 0.00000000 0.00000000 
protein_382 0.0 0 A 0.00000000 0.00000000 
protein_383 0.0 0 A 0.00000000 0.00000000 
protein_384 0.0 0 A 0.00000000 0.00000000 
protein_385 0.0 0 A 0.00000000 0.00000000 
protein_386 0.0 0 A 0.00000000 0.00000000 
protein_387 0.0 0 A 0.00000000 0.00000000 
protein_388 0.0 0 A 0.00000000 0.00000000 
protein_389 0.0 0 A 0.00000000 0.00000000 
protein_390 0.0 0 A 0.00000000 0.00000000 
protein_391 0.0 0 A 0.00000000 0.00000000 
protein_392 0.0 0 A 0.00000000 0.00000000 
protein_393 0.0 0 A 0.00000000 0.00000000 
protein_394 0.0 0 A 0.00000000 0.00000000 
protein_395 0.0 0 A 0.00000000 0.00000000 
protein_396 0.0 0 A 0.00000000 0.00000000 
protein_397 0.0 0 A 0.00000000 0.00000000 
protein_398 0.0 0 A 0.00000000 0.00000000 
protein_399 0.0 0 A 0.00000000 0.00000000 
protein_400 0.0 0 A 0.00000000 0.00000000 
protein_401 0.0 0 A 0.00000000 0.00000000 
protein_402 0.0 0 A 0.00000000 0.00000000 
protein_403 0.0 0 A 0.00000000 0.00000000 
protein_404 0.0 0 A 0.00000000 0.00000000 
protein_405 0.0 0 A 0.00000000 0.00000000 
protein_406 0.0 0 A 0.00000000 0.00000000 
protein_407 0.0 0 A 0.00000000 0.00000000 
protein_408 0.0 0 A 0.00000000 0.00000000 
protein_409 0.0 0 A 0.00000000 0.00000000 
protein_410 0.0 0 A 0.00000000 0.00000000 
protein_411 0.0 0 A 0.00000000 0.00000000 
protein_412 0.0 0 A 0.00000000 0.00000000 
protein_413 0.0 0 A 0.00000000 0.00000000 
protein_414 0.0 0 A 0.00000000 0.00000000 
protein_415 0.0 0 A 0.00000000 0.00000000 
protein_416 0.0 0 A 0.00000000 0.00000000 
protein_417 0.0 0 A 0.00000000 0.00000000 
protein_418 0.0 0 A 0.00000000 0.00000000 
protein_419 0.0 0 A 0.00000000 0.00000000 
protein_420 0.0 0 A 0.00000000 0.00000000 
protein_421 0.0 0 A 0.00000000 0.00000000 
protein_422 0.0 0 A 0.00000000 0.00000000 
protein_423 0.0 0 A 0.00000000 0.00000000 
protein_424 0.0 0 A 0.00000000 0.00000000 
protein_425 0.0 0 A 0.00000000 0.00000000 
protein_426 0.0 0 A 0.00000000 0.00000000 
protein_427 0.0 0 A 0.00000000 0.00000000 
protein_428 0.0 0 A 0.00000000 0.00000000 
protein_429 0.0 0 A 0.00000000 0.00000000 
protein_430 0.0 0 A 0.00000000 0.00000000 
protein_431 0.0 0 A 0.00000000 0.00000000 
protein_432 0.0 0 A 0.00000000 0.00000000 
protein_433 0.0 0 A 0.00000000 0.00000000 
protein_434 0.0 0 A 0.00000000 0.00000000 
protein_435 0.0 0 A 0.00000000 0.00000000 
protein_436 0.0 0 A 0.00000000 0.00000000 
protein_437 0.0 0 A 0.00000000 0.00000000 
protein_438 0.0 0 A 0.00000000 0.00000000 
protein_439 0.0 0 A 0.00000000 0.00000000 
protein_440 0.0 0 A 0.00000000 0.00000000 
protein_441 0.0 0 A 0.00000000 0.00000000 
protein_442 0.0 0 A 0.00000000 0.00000000 
protein_443 0.0 0 A 0.00000000 0.00000000 
protein_444 0.0 0 A 0.00000000 0.00000000 
protein_445 0.0 0 A 0.00000000 0.00000000 
protein_446 0.0 0 A 0.00000000 0.00000000 
protein_447 0.0 0 A 0.00000000 0.00000000 
protein_448 0.0 0 A 0.00000000 0.00000000 
protein_449 0.0 0 A 0.00000000 0.00000000 
protein_450 0.0 0 A 0.00000000 0.00000000 
protein_451 0.0 0 A 0.00000000 0.00000000 
protein_452 0.0 0 A 0.00000000 0.00000000 
protein_453 0.0 0 A 0.00000000 0.00000000 
protein_454 0.0 0 A 0.00000000 0.00000000 
protein_455 0.0 0 A 0.00000000 0.00000000 
protein_456 0.0 0 A 0.00000000 0.00000000 
protein_457 0.0 0 A 0.00000000 0.00000000 
protein_458 0.0 0 A 0.00000000 0.00000000 
protein_459 0.0 0 A 0.00000000 0.00000000 
protein_460 0.0 0 A 0.00000000 0.00000000 
protein_461 0.0 0 A 0.00000000 0.00000000 
protein_462 0.0 0 A 0.00000000 0.00000000 
protein_463 0.0 0 A 0.00000000 0.00000000 
protein_464 0.0 0 A 0.00000000 0.00000000 
protein_465 0.0 0 A 0.00000000 0.00000000 
protein_466 0.0 0 A 0.00000000 0.00000000 
protein_467 0.0 0 A 0.00000000 0.00000000 
protein_468 0.0 0 A 0.00000000 0.00000000 
protein_469 0.0 0 A 0.00000000 0.00000000 
protein_470 0.0 0 A 0.00000000 0.00000000 
protein_471 0.0 0 A 0.00000000 0.00000000 
protein_472 0.0 0 A 0.00000000 0.00000000 
protein_473 0.0 0 A 0.00000000 0.00000000 
protein_474 0.0 0 A 0.00000000 0.00000000 
protein_475 0.0 0 A 0.00000000 0.00000000 
protein_476 0.0 0 A 0.00000000 0.00000000 
protein_477 0.0 0 A 0.00000000 0.00000000 
protein_478 0.0 0 A 0.00000000 0.00000000 
protein_479 0.0 0 A 0.00000000 0.00000000 
protein_480 0.0 0 A 0.00000000 0.00000000 
protein_481 0.0 0 A 0.00000000 0.00000000 
protein_482 0.0 0 A 0.00000000 0.00000000 
protein_483 0.0 0 A 0.00000000 0.00000000 
protein_484 0.0 0 A 0.00000000 0.00000000 
protein_485 0.0 0 A 0.00000000 0.00000000 
protein_486 0.0 0 A 0.00000000 0.00000000 
protein_487 0.0 0 A 0.00000000 0.00000000 
protein_488 0.0 0 A 0.00000000 0.00000000 
protein_489 0.0 0 A 0.00000000 0.00000000 
protein_490 0.0 0 A 0.00000000 0.00000000 
protein_491 0.0 0 A 0.00000000 0.00000000 
protein_492 0.0 0 A 0.00000000 0.00000000 
protein_493 0.0 0 A 0.00000000 0.00000000 
protein_494 0.0 0 A 0.00000000 0.00000000 
protein_495 0.0 0 A 0.00000000 0.00000000 
protein_496 0.0 0 A 0.00000000 0.00000000 
protein_497 0.0 0 A 0.00000000 0.00000000 
protein_498 0.0 0 A 0.00000000 0.00000000 
protein_499 0.0 0 A 0.00000000 0.00000000 
protein_500 0.0 0 A 0.00000000 0.00000000 
protein_501 0.0 0 A 0.00000000 0.00000000 
protein_502 0.0 0 A 0.00000000 0.00000000 
protein_503 0.0 0 A 0.00000000 0.00000000 
protein_504 0.0 0 A 0.00000000 0.00000000 
protein_505 0.0 0 A 0.00000000 0.00000000 
protein_506 0.0 0 A 0.00000000 0.00000000 
protein_507 0.0 0 A 0.00000000 0.00000000 
protein_508 0.0 0 A 0.00000000 0.00000000 
protein_509 0.0 0 A 0.00000000 0.00000000 
protein_510 0.0 0 A 0.00000000 0.00000000 
protein_511 0.0 0 A 0.00000000 0.00000000 
protein_512 0.0 0 A 0.00000000 0.00000000 
protein_513 0.0 0 A 0.00000000 0.00000000 
protein_514 0.0 0 A 0.00000000 0.00000000 
protein_515 0.0 0 A 0.00000000 0.00000000 
protein_516 0.0 0 A 0.00000000 0.00000000 
protein_517 0.0 0 A 0.00000000 0.00000000 
protein_518 0.0 0 A 0.00000000 0.00000000 
