
[ atomtypes ]
 TRAAK_1 0.0 0.0 A 0.0 0.0
 TRAAK_2 0.0 0.0 A 0.0 0.0
 TRAAK_3 0.0 0.0 A 0.0 0.0
 TRAAK_4 0.0 0.0 A 0.0 0.0
 TRAAK_5 0.0 0.0 A 0.0 0.0
 TRAAK_6 0.0 0.0 A 0.0 0.0
 TRAAK_7 0.0 0.0 A 0.0 0.0
 TRAAK_8 0.0 0.0 A 0.0 0.0
 TRAAK_9 0.0 0.0 A 0.0 0.0
 TRAAK_10 0.0 0.0 A 0.0 0.0
 TRAAK_11 0.0 0.0 A 0.0 0.0
 TRAAK_12 0.0 0.0 A 0.0 0.0
 TRAAK_13 0.0 0.0 A 0.0 0.0
 TRAAK_14 0.0 0.0 A 0.0 0.0
 TRAAK_15 0.0 0.0 A 0.0 0.0
 TRAAK_16 0.0 0.0 A 0.0 0.0
 TRAAK_17 0.0 0.0 A 0.0 0.0
 TRAAK_18 0.0 0.0 A 0.0 0.0
 TRAAK_19 0.0 0.0 A 0.0 0.0
 TRAAK_20 0.0 0.0 A 0.0 0.0
 TRAAK_21 0.0 0.0 A 0.0 0.0
 TRAAK_22 0.0 0.0 A 0.0 0.0
 TRAAK_23 0.0 0.0 A 0.0 0.0
 TRAAK_24 0.0 0.0 A 0.0 0.0
 TRAAK_25 0.0 0.0 A 0.0 0.0
 TRAAK_26 0.0 0.0 A 0.0 0.0
 TRAAK_27 0.0 0.0 A 0.0 0.0
 TRAAK_28 0.0 0.0 A 0.0 0.0
 TRAAK_29 0.0 0.0 A 0.0 0.0
 TRAAK_30 0.0 0.0 A 0.0 0.0
 TRAAK_31 0.0 0.0 A 0.0 0.0
 TRAAK_32 0.0 0.0 A 0.0 0.0
 TRAAK_33 0.0 0.0 A 0.0 0.0
 TRAAK_34 0.0 0.0 A 0.0 0.0
 TRAAK_35 0.0 0.0 A 0.0 0.0
 TRAAK_36 0.0 0.0 A 0.0 0.0
 TRAAK_37 0.0 0.0 A 0.0 0.0
 TRAAK_38 0.0 0.0 A 0.0 0.0
 TRAAK_39 0.0 0.0 A 0.0 0.0
 TRAAK_40 0.0 0.0 A 0.0 0.0
 TRAAK_41 0.0 0.0 A 0.0 0.0
 TRAAK_42 0.0 0.0 A 0.0 0.0
 TRAAK_43 0.0 0.0 A 0.0 0.0
 TRAAK_44 0.0 0.0 A 0.0 0.0
 TRAAK_45 0.0 0.0 A 0.0 0.0
 TRAAK_46 0.0 0.0 A 0.0 0.0
 TRAAK_47 0.0 0.0 A 0.0 0.0
 TRAAK_48 0.0 0.0 A 0.0 0.0
 TRAAK_49 0.0 0.0 A 0.0 0.0
 TRAAK_50 0.0 0.0 A 0.0 0.0
 TRAAK_51 0.0 0.0 A 0.0 0.0
 TRAAK_52 0.0 0.0 A 0.0 0.0
 TRAAK_53 0.0 0.0 A 0.0 0.0
 TRAAK_54 0.0 0.0 A 0.0 0.0
 TRAAK_55 0.0 0.0 A 0.0 0.0
 TRAAK_56 0.0 0.0 A 0.0 0.0
 TRAAK_57 0.0 0.0 A 0.0 0.0
 TRAAK_58 0.0 0.0 A 0.0 0.0
 TRAAK_59 0.0 0.0 A 0.0 0.0
 TRAAK_60 0.0 0.0 A 0.0 0.0
 TRAAK_61 0.0 0.0 A 0.0 0.0
 TRAAK_62 0.0 0.0 A 0.0 0.0
 TRAAK_63 0.0 0.0 A 0.0 0.0
 TRAAK_64 0.0 0.0 A 0.0 0.0
 TRAAK_65 0.0 0.0 A 0.0 0.0
 TRAAK_66 0.0 0.0 A 0.0 0.0
 TRAAK_67 0.0 0.0 A 0.0 0.0
 TRAAK_68 0.0 0.0 A 0.0 0.0
 TRAAK_69 0.0 0.0 A 0.0 0.0
 TRAAK_70 0.0 0.0 A 0.0 0.0
 TRAAK_71 0.0 0.0 A 0.0 0.0
 TRAAK_72 0.0 0.0 A 0.0 0.0
 TRAAK_73 0.0 0.0 A 0.0 0.0
 TRAAK_74 0.0 0.0 A 0.0 0.0
 TRAAK_75 0.0 0.0 A 0.0 0.0
 TRAAK_76 0.0 0.0 A 0.0 0.0
 TRAAK_77 0.0 0.0 A 0.0 0.0
 TRAAK_78 0.0 0.0 A 0.0 0.0
 TRAAK_79 0.0 0.0 A 0.0 0.0
 TRAAK_80 0.0 0.0 A 0.0 0.0
 TRAAK_81 0.0 0.0 A 0.0 0.0
 TRAAK_82 0.0 0.0 A 0.0 0.0
 TRAAK_83 0.0 0.0 A 0.0 0.0
 TRAAK_84 0.0 0.0 A 0.0 0.0
 TRAAK_85 0.0 0.0 A 0.0 0.0
 TRAAK_86 0.0 0.0 A 0.0 0.0
 TRAAK_87 0.0 0.0 A 0.0 0.0
 TRAAK_88 0.0 0.0 A 0.0 0.0
 TRAAK_89 0.0 0.0 A 0.0 0.0
 TRAAK_90 0.0 0.0 A 0.0 0.0
 TRAAK_91 0.0 0.0 A 0.0 0.0
 TRAAK_92 0.0 0.0 A 0.0 0.0
 TRAAK_93 0.0 0.0 A 0.0 0.0
 TRAAK_94 0.0 0.0 A 0.0 0.0
 TRAAK_95 0.0 0.0 A 0.0 0.0
 TRAAK_96 0.0 0.0 A 0.0 0.0
 TRAAK_97 0.0 0.0 A 0.0 0.0
 TRAAK_98 0.0 0.0 A 0.0 0.0
 TRAAK_99 0.0 0.0 A 0.0 0.0
 TRAAK_100 0.0 0.0 A 0.0 0.0
 TRAAK_101 0.0 0.0 A 0.0 0.0
 TRAAK_102 0.0 0.0 A 0.0 0.0
 TRAAK_103 0.0 0.0 A 0.0 0.0
 TRAAK_104 0.0 0.0 A 0.0 0.0
 TRAAK_105 0.0 0.0 A 0.0 0.0
 TRAAK_106 0.0 0.0 A 0.0 0.0
 TRAAK_107 0.0 0.0 A 0.0 0.0
 TRAAK_108 0.0 0.0 A 0.0 0.0
 TRAAK_109 0.0 0.0 A 0.0 0.0
 TRAAK_110 0.0 0.0 A 0.0 0.0
 TRAAK_111 0.0 0.0 A 0.0 0.0
 TRAAK_112 0.0 0.0 A 0.0 0.0
 TRAAK_113 0.0 0.0 A 0.0 0.0
 TRAAK_114 0.0 0.0 A 0.0 0.0
 TRAAK_115 0.0 0.0 A 0.0 0.0
 TRAAK_116 0.0 0.0 A 0.0 0.0
 TRAAK_117 0.0 0.0 A 0.0 0.0
 TRAAK_118 0.0 0.0 A 0.0 0.0
 TRAAK_119 0.0 0.0 A 0.0 0.0
 TRAAK_120 0.0 0.0 A 0.0 0.0
 TRAAK_121 0.0 0.0 A 0.0 0.0
 TRAAK_122 0.0 0.0 A 0.0 0.0
 TRAAK_123 0.0 0.0 A 0.0 0.0
 TRAAK_124 0.0 0.0 A 0.0 0.0
 TRAAK_125 0.0 0.0 A 0.0 0.0
 TRAAK_126 0.0 0.0 A 0.0 0.0
 TRAAK_127 0.0 0.0 A 0.0 0.0
 TRAAK_128 0.0 0.0 A 0.0 0.0
 TRAAK_129 0.0 0.0 A 0.0 0.0
 TRAAK_130 0.0 0.0 A 0.0 0.0
 TRAAK_131 0.0 0.0 A 0.0 0.0
 TRAAK_132 0.0 0.0 A 0.0 0.0
 TRAAK_133 0.0 0.0 A 0.0 0.0
 TRAAK_134 0.0 0.0 A 0.0 0.0
 TRAAK_135 0.0 0.0 A 0.0 0.0
 TRAAK_136 0.0 0.0 A 0.0 0.0
 TRAAK_137 0.0 0.0 A 0.0 0.0
 TRAAK_138 0.0 0.0 A 0.0 0.0
 TRAAK_139 0.0 0.0 A 0.0 0.0
 TRAAK_140 0.0 0.0 A 0.0 0.0
 TRAAK_141 0.0 0.0 A 0.0 0.0
 TRAAK_142 0.0 0.0 A 0.0 0.0
 TRAAK_143 0.0 0.0 A 0.0 0.0
 TRAAK_144 0.0 0.0 A 0.0 0.0
 TRAAK_145 0.0 0.0 A 0.0 0.0
 TRAAK_146 0.0 0.0 A 0.0 0.0
 TRAAK_147 0.0 0.0 A 0.0 0.0
 TRAAK_148 0.0 0.0 A 0.0 0.0
 TRAAK_149 0.0 0.0 A 0.0 0.0
 TRAAK_150 0.0 0.0 A 0.0 0.0
 TRAAK_151 0.0 0.0 A 0.0 0.0
 TRAAK_152 0.0 0.0 A 0.0 0.0
 TRAAK_153 0.0 0.0 A 0.0 0.0
 TRAAK_154 0.0 0.0 A 0.0 0.0
 TRAAK_155 0.0 0.0 A 0.0 0.0
 TRAAK_156 0.0 0.0 A 0.0 0.0
 TRAAK_157 0.0 0.0 A 0.0 0.0
 TRAAK_158 0.0 0.0 A 0.0 0.0
 TRAAK_159 0.0 0.0 A 0.0 0.0
 TRAAK_160 0.0 0.0 A 0.0 0.0
 TRAAK_161 0.0 0.0 A 0.0 0.0
 TRAAK_162 0.0 0.0 A 0.0 0.0
 TRAAK_163 0.0 0.0 A 0.0 0.0
 TRAAK_164 0.0 0.0 A 0.0 0.0
 TRAAK_165 0.0 0.0 A 0.0 0.0
 TRAAK_166 0.0 0.0 A 0.0 0.0
 TRAAK_167 0.0 0.0 A 0.0 0.0
 TRAAK_168 0.0 0.0 A 0.0 0.0
 TRAAK_169 0.0 0.0 A 0.0 0.0
 TRAAK_170 0.0 0.0 A 0.0 0.0
 TRAAK_171 0.0 0.0 A 0.0 0.0
 TRAAK_172 0.0 0.0 A 0.0 0.0
 TRAAK_173 0.0 0.0 A 0.0 0.0
 TRAAK_174 0.0 0.0 A 0.0 0.0
 TRAAK_175 0.0 0.0 A 0.0 0.0
 TRAAK_176 0.0 0.0 A 0.0 0.0
 TRAAK_177 0.0 0.0 A 0.0 0.0
 TRAAK_178 0.0 0.0 A 0.0 0.0
 TRAAK_179 0.0 0.0 A 0.0 0.0
 TRAAK_180 0.0 0.0 A 0.0 0.0
 TRAAK_181 0.0 0.0 A 0.0 0.0
 TRAAK_182 0.0 0.0 A 0.0 0.0
 TRAAK_183 0.0 0.0 A 0.0 0.0
 TRAAK_184 0.0 0.0 A 0.0 0.0
 TRAAK_185 0.0 0.0 A 0.0 0.0
 TRAAK_186 0.0 0.0 A 0.0 0.0
 TRAAK_187 0.0 0.0 A 0.0 0.0
 TRAAK_188 0.0 0.0 A 0.0 0.0
 TRAAK_189 0.0 0.0 A 0.0 0.0
 TRAAK_190 0.0 0.0 A 0.0 0.0
 TRAAK_191 0.0 0.0 A 0.0 0.0
 TRAAK_192 0.0 0.0 A 0.0 0.0
 TRAAK_193 0.0 0.0 A 0.0 0.0
 TRAAK_194 0.0 0.0 A 0.0 0.0
 TRAAK_195 0.0 0.0 A 0.0 0.0
 TRAAK_196 0.0 0.0 A 0.0 0.0
 TRAAK_197 0.0 0.0 A 0.0 0.0
 TRAAK_198 0.0 0.0 A 0.0 0.0
 TRAAK_199 0.0 0.0 A 0.0 0.0
 TRAAK_200 0.0 0.0 A 0.0 0.0
 TRAAK_201 0.0 0.0 A 0.0 0.0
 TRAAK_202 0.0 0.0 A 0.0 0.0
 TRAAK_203 0.0 0.0 A 0.0 0.0
 TRAAK_204 0.0 0.0 A 0.0 0.0
 TRAAK_205 0.0 0.0 A 0.0 0.0
 TRAAK_206 0.0 0.0 A 0.0 0.0
 TRAAK_207 0.0 0.0 A 0.0 0.0
 TRAAK_208 0.0 0.0 A 0.0 0.0
 TRAAK_209 0.0 0.0 A 0.0 0.0
 TRAAK_210 0.0 0.0 A 0.0 0.0
 TRAAK_211 0.0 0.0 A 0.0 0.0
 TRAAK_212 0.0 0.0 A 0.0 0.0
 TRAAK_213 0.0 0.0 A 0.0 0.0
 TRAAK_214 0.0 0.0 A 0.0 0.0
 TRAAK_215 0.0 0.0 A 0.0 0.0
 TRAAK_216 0.0 0.0 A 0.0 0.0
 TRAAK_217 0.0 0.0 A 0.0 0.0
 TRAAK_218 0.0 0.0 A 0.0 0.0
 TRAAK_219 0.0 0.0 A 0.0 0.0
 TRAAK_220 0.0 0.0 A 0.0 0.0
 TRAAK_221 0.0 0.0 A 0.0 0.0
 TRAAK_222 0.0 0.0 A 0.0 0.0
 TRAAK_223 0.0 0.0 A 0.0 0.0
 TRAAK_224 0.0 0.0 A 0.0 0.0
 TRAAK_225 0.0 0.0 A 0.0 0.0
 TRAAK_226 0.0 0.0 A 0.0 0.0
 TRAAK_227 0.0 0.0 A 0.0 0.0
 TRAAK_228 0.0 0.0 A 0.0 0.0
 TRAAK_229 0.0 0.0 A 0.0 0.0
 TRAAK_230 0.0 0.0 A 0.0 0.0
 TRAAK_231 0.0 0.0 A 0.0 0.0
 TRAAK_232 0.0 0.0 A 0.0 0.0
 TRAAK_233 0.0 0.0 A 0.0 0.0
 TRAAK_234 0.0 0.0 A 0.0 0.0
 TRAAK_235 0.0 0.0 A 0.0 0.0
 TRAAK_236 0.0 0.0 A 0.0 0.0
 TRAAK_237 0.0 0.0 A 0.0 0.0
 TRAAK_238 0.0 0.0 A 0.0 0.0
 TRAAK_239 0.0 0.0 A 0.0 0.0
 TRAAK_240 0.0 0.0 A 0.0 0.0
 TRAAK_241 0.0 0.0 A 0.0 0.0
 TRAAK_242 0.0 0.0 A 0.0 0.0
 TRAAK_243 0.0 0.0 A 0.0 0.0
 TRAAK_244 0.0 0.0 A 0.0 0.0
 TRAAK_245 0.0 0.0 A 0.0 0.0
 TRAAK_246 0.0 0.0 A 0.0 0.0
 TRAAK_247 0.0 0.0 A 0.0 0.0
 TRAAK_248 0.0 0.0 A 0.0 0.0
 TRAAK_249 0.0 0.0 A 0.0 0.0
 TRAAK_250 0.0 0.0 A 0.0 0.0
 TRAAK_251 0.0 0.0 A 0.0 0.0
 TRAAK_252 0.0 0.0 A 0.0 0.0
 TRAAK_253 0.0 0.0 A 0.0 0.0
 TRAAK_254 0.0 0.0 A 0.0 0.0
 TRAAK_255 0.0 0.0 A 0.0 0.0
 TRAAK_256 0.0 0.0 A 0.0 0.0
 TRAAK_257 0.0 0.0 A 0.0 0.0
 TRAAK_258 0.0 0.0 A 0.0 0.0
 TRAAK_259 0.0 0.0 A 0.0 0.0
 TRAAK_260 0.0 0.0 A 0.0 0.0
 TRAAK_261 0.0 0.0 A 0.0 0.0
 TRAAK_262 0.0 0.0 A 0.0 0.0
 TRAAK_263 0.0 0.0 A 0.0 0.0
 TRAAK_264 0.0 0.0 A 0.0 0.0
 TRAAK_265 0.0 0.0 A 0.0 0.0
 TRAAK_266 0.0 0.0 A 0.0 0.0
 TRAAK_267 0.0 0.0 A 0.0 0.0
 TRAAK_268 0.0 0.0 A 0.0 0.0
 TRAAK_269 0.0 0.0 A 0.0 0.0
 TRAAK_270 0.0 0.0 A 0.0 0.0
 TRAAK_271 0.0 0.0 A 0.0 0.0
 TRAAK_272 0.0 0.0 A 0.0 0.0
 TRAAK_273 0.0 0.0 A 0.0 0.0
 TRAAK_274 0.0 0.0 A 0.0 0.0
 TRAAK_275 0.0 0.0 A 0.0 0.0
 TRAAK_276 0.0 0.0 A 0.0 0.0
 TRAAK_277 0.0 0.0 A 0.0 0.0
 TRAAK_278 0.0 0.0 A 0.0 0.0
 TRAAK_279 0.0 0.0 A 0.0 0.0
 TRAAK_280 0.0 0.0 A 0.0 0.0
 TRAAK_281 0.0 0.0 A 0.0 0.0
 TRAAK_282 0.0 0.0 A 0.0 0.0
 TRAAK_283 0.0 0.0 A 0.0 0.0
 TRAAK_284 0.0 0.0 A 0.0 0.0
 TRAAK_285 0.0 0.0 A 0.0 0.0
 TRAAK_286 0.0 0.0 A 0.0 0.0
 TRAAK_287 0.0 0.0 A 0.0 0.0
 TRAAK_288 0.0 0.0 A 0.0 0.0
 TRAAK_289 0.0 0.0 A 0.0 0.0
 TRAAK_290 0.0 0.0 A 0.0 0.0
 TRAAK_291 0.0 0.0 A 0.0 0.0
 TRAAK_292 0.0 0.0 A 0.0 0.0
 TRAAK_293 0.0 0.0 A 0.0 0.0
 TRAAK_294 0.0 0.0 A 0.0 0.0
 TRAAK_295 0.0 0.0 A 0.0 0.0
 TRAAK_296 0.0 0.0 A 0.0 0.0
 TRAAK_297 0.0 0.0 A 0.0 0.0
 TRAAK_298 0.0 0.0 A 0.0 0.0
 TRAAK_299 0.0 0.0 A 0.0 0.0
 TRAAK_300 0.0 0.0 A 0.0 0.0
 TRAAK_301 0.0 0.0 A 0.0 0.0
 TRAAK_302 0.0 0.0 A 0.0 0.0
 TRAAK_303 0.0 0.0 A 0.0 0.0
 TRAAK_304 0.0 0.0 A 0.0 0.0
 TRAAK_305 0.0 0.0 A 0.0 0.0
 TRAAK_306 0.0 0.0 A 0.0 0.0
 TRAAK_307 0.0 0.0 A 0.0 0.0
 TRAAK_308 0.0 0.0 A 0.0 0.0
 TRAAK_309 0.0 0.0 A 0.0 0.0
 TRAAK_310 0.0 0.0 A 0.0 0.0
 TRAAK_311 0.0 0.0 A 0.0 0.0
 TRAAK_312 0.0 0.0 A 0.0 0.0
 TRAAK_313 0.0 0.0 A 0.0 0.0
 TRAAK_314 0.0 0.0 A 0.0 0.0
 TRAAK_315 0.0 0.0 A 0.0 0.0
 TRAAK_316 0.0 0.0 A 0.0 0.0
 TRAAK_317 0.0 0.0 A 0.0 0.0
 TRAAK_318 0.0 0.0 A 0.0 0.0
 TRAAK_319 0.0 0.0 A 0.0 0.0
 TRAAK_320 0.0 0.0 A 0.0 0.0
 TRAAK_321 0.0 0.0 A 0.0 0.0
 TRAAK_322 0.0 0.0 A 0.0 0.0
 TRAAK_323 0.0 0.0 A 0.0 0.0
 TRAAK_324 0.0 0.0 A 0.0 0.0
 TRAAK_325 0.0 0.0 A 0.0 0.0
 TRAAK_326 0.0 0.0 A 0.0 0.0
 TRAAK_327 0.0 0.0 A 0.0 0.0
 TRAAK_328 0.0 0.0 A 0.0 0.0
 TRAAK_329 0.0 0.0 A 0.0 0.0
 TRAAK_330 0.0 0.0 A 0.0 0.0
 TRAAK_331 0.0 0.0 A 0.0 0.0
 TRAAK_332 0.0 0.0 A 0.0 0.0
 TRAAK_333 0.0 0.0 A 0.0 0.0
 TRAAK_334 0.0 0.0 A 0.0 0.0
 TRAAK_335 0.0 0.0 A 0.0 0.0
 TRAAK_336 0.0 0.0 A 0.0 0.0
 TRAAK_337 0.0 0.0 A 0.0 0.0
 TRAAK_338 0.0 0.0 A 0.0 0.0
 TRAAK_339 0.0 0.0 A 0.0 0.0
 TRAAK_340 0.0 0.0 A 0.0 0.0
 TRAAK_341 0.0 0.0 A 0.0 0.0
 TRAAK_342 0.0 0.0 A 0.0 0.0
 TRAAK_343 0.0 0.0 A 0.0 0.0
 TRAAK_344 0.0 0.0 A 0.0 0.0
 TRAAK_345 0.0 0.0 A 0.0 0.0
 TRAAK_346 0.0 0.0 A 0.0 0.0
 TRAAK_347 0.0 0.0 A 0.0 0.0
 TRAAK_348 0.0 0.0 A 0.0 0.0
 TRAAK_349 0.0 0.0 A 0.0 0.0
 TRAAK_350 0.0 0.0 A 0.0 0.0
 TRAAK_351 0.0 0.0 A 0.0 0.0
 TRAAK_352 0.0 0.0 A 0.0 0.0
 TRAAK_353 0.0 0.0 A 0.0 0.0
 TRAAK_354 0.0 0.0 A 0.0 0.0
 TRAAK_355 0.0 0.0 A 0.0 0.0
 TRAAK_356 0.0 0.0 A 0.0 0.0
 TRAAK_357 0.0 0.0 A 0.0 0.0
 TRAAK_358 0.0 0.0 A 0.0 0.0
 TRAAK_359 0.0 0.0 A 0.0 0.0
 TRAAK_360 0.0 0.0 A 0.0 0.0
 TRAAK_361 0.0 0.0 A 0.0 0.0
 TRAAK_362 0.0 0.0 A 0.0 0.0
 TRAAK_363 0.0 0.0 A 0.0 0.0
 TRAAK_364 0.0 0.0 A 0.0 0.0
 TRAAK_365 0.0 0.0 A 0.0 0.0
 TRAAK_366 0.0 0.0 A 0.0 0.0
 TRAAK_367 0.0 0.0 A 0.0 0.0
 TRAAK_368 0.0 0.0 A 0.0 0.0
 TRAAK_369 0.0 0.0 A 0.0 0.0
 TRAAK_370 0.0 0.0 A 0.0 0.0
 TRAAK_371 0.0 0.0 A 0.0 0.0
 TRAAK_372 0.0 0.0 A 0.0 0.0
 TRAAK_373 0.0 0.0 A 0.0 0.0
 TRAAK_374 0.0 0.0 A 0.0 0.0
 TRAAK_375 0.0 0.0 A 0.0 0.0
 TRAAK_376 0.0 0.0 A 0.0 0.0
 TRAAK_377 0.0 0.0 A 0.0 0.0
 TRAAK_378 0.0 0.0 A 0.0 0.0
 TRAAK_379 0.0 0.0 A 0.0 0.0
 TRAAK_380 0.0 0.0 A 0.0 0.0
 TRAAK_381 0.0 0.0 A 0.0 0.0
 TRAAK_382 0.0 0.0 A 0.0 0.0
 TRAAK_383 0.0 0.0 A 0.0 0.0
 TRAAK_384 0.0 0.0 A 0.0 0.0
 TRAAK_385 0.0 0.0 A 0.0 0.0
 TRAAK_386 0.0 0.0 A 0.0 0.0
 TRAAK_387 0.0 0.0 A 0.0 0.0
 TRAAK_388 0.0 0.0 A 0.0 0.0
 TRAAK_389 0.0 0.0 A 0.0 0.0
 TRAAK_390 0.0 0.0 A 0.0 0.0
 TRAAK_391 0.0 0.0 A 0.0 0.0
 TRAAK_392 0.0 0.0 A 0.0 0.0
 TRAAK_393 0.0 0.0 A 0.0 0.0
 TRAAK_394 0.0 0.0 A 0.0 0.0
 TRAAK_395 0.0 0.0 A 0.0 0.0
 TRAAK_396 0.0 0.0 A 0.0 0.0
 TRAAK_397 0.0 0.0 A 0.0 0.0
 TRAAK_398 0.0 0.0 A 0.0 0.0
 TRAAK_399 0.0 0.0 A 0.0 0.0
 TRAAK_400 0.0 0.0 A 0.0 0.0
 TRAAK_401 0.0 0.0 A 0.0 0.0
 TRAAK_402 0.0 0.0 A 0.0 0.0
 TRAAK_403 0.0 0.0 A 0.0 0.0
 TRAAK_404 0.0 0.0 A 0.0 0.0
 TRAAK_405 0.0 0.0 A 0.0 0.0
 TRAAK_406 0.0 0.0 A 0.0 0.0
 TRAAK_407 0.0 0.0 A 0.0 0.0
 TRAAK_408 0.0 0.0 A 0.0 0.0
 TRAAK_409 0.0 0.0 A 0.0 0.0
 TRAAK_410 0.0 0.0 A 0.0 0.0
 TRAAK_411 0.0 0.0 A 0.0 0.0
 TRAAK_412 0.0 0.0 A 0.0 0.0
 TRAAK_413 0.0 0.0 A 0.0 0.0
 TRAAK_414 0.0 0.0 A 0.0 0.0
 TRAAK_415 0.0 0.0 A 0.0 0.0
 TRAAK_416 0.0 0.0 A 0.0 0.0
 TRAAK_417 0.0 0.0 A 0.0 0.0
 TRAAK_418 0.0 0.0 A 0.0 0.0
 TRAAK_419 0.0 0.0 A 0.0 0.0
 TRAAK_420 0.0 0.0 A 0.0 0.0
 TRAAK_421 0.0 0.0 A 0.0 0.0
 TRAAK_422 0.0 0.0 A 0.0 0.0
 TRAAK_423 0.0 0.0 A 0.0 0.0
 TRAAK_424 0.0 0.0 A 0.0 0.0
 TRAAK_425 0.0 0.0 A 0.0 0.0
 TRAAK_426 0.0 0.0 A 0.0 0.0
 TRAAK_427 0.0 0.0 A 0.0 0.0
 TRAAK_428 0.0 0.0 A 0.0 0.0
 TRAAK_429 0.0 0.0 A 0.0 0.0
 TRAAK_430 0.0 0.0 A 0.0 0.0
 TRAAK_431 0.0 0.0 A 0.0 0.0
 TRAAK_432 0.0 0.0 A 0.0 0.0
 TRAAK_433 0.0 0.0 A 0.0 0.0
 TRAAK_434 0.0 0.0 A 0.0 0.0
 TRAAK_435 0.0 0.0 A 0.0 0.0
 TRAAK_436 0.0 0.0 A 0.0 0.0
 TRAAK_437 0.0 0.0 A 0.0 0.0
 TRAAK_438 0.0 0.0 A 0.0 0.0
 TRAAK_439 0.0 0.0 A 0.0 0.0
 TRAAK_440 0.0 0.0 A 0.0 0.0
 TRAAK_441 0.0 0.0 A 0.0 0.0
 TRAAK_442 0.0 0.0 A 0.0 0.0
 TRAAK_443 0.0 0.0 A 0.0 0.0
 TRAAK_444 0.0 0.0 A 0.0 0.0
 TRAAK_445 0.0 0.0 A 0.0 0.0
 TRAAK_446 0.0 0.0 A 0.0 0.0
 TRAAK_447 0.0 0.0 A 0.0 0.0
 TRAAK_448 0.0 0.0 A 0.0 0.0
 TRAAK_449 0.0 0.0 A 0.0 0.0
 TRAAK_450 0.0 0.0 A 0.0 0.0
 TRAAK_451 0.0 0.0 A 0.0 0.0
 TRAAK_452 0.0 0.0 A 0.0 0.0
 TRAAK_453 0.0 0.0 A 0.0 0.0
 TRAAK_454 0.0 0.0 A 0.0 0.0
 TRAAK_455 0.0 0.0 A 0.0 0.0
 TRAAK_456 0.0 0.0 A 0.0 0.0
 TRAAK_457 0.0 0.0 A 0.0 0.0
 TRAAK_458 0.0 0.0 A 0.0 0.0
 TRAAK_459 0.0 0.0 A 0.0 0.0
 TRAAK_460 0.0 0.0 A 0.0 0.0
 TRAAK_461 0.0 0.0 A 0.0 0.0
 TRAAK_462 0.0 0.0 A 0.0 0.0
 TRAAK_463 0.0 0.0 A 0.0 0.0
 TRAAK_464 0.0 0.0 A 0.0 0.0
 TRAAK_465 0.0 0.0 A 0.0 0.0
 TRAAK_466 0.0 0.0 A 0.0 0.0
 TRAAK_467 0.0 0.0 A 0.0 0.0
 TRAAK_468 0.0 0.0 A 0.0 0.0
 TRAAK_469 0.0 0.0 A 0.0 0.0
 TRAAK_470 0.0 0.0 A 0.0 0.0
 TRAAK_471 0.0 0.0 A 0.0 0.0
 TRAAK_472 0.0 0.0 A 0.0 0.0
 TRAAK_473 0.0 0.0 A 0.0 0.0
 TRAAK_474 0.0 0.0 A 0.0 0.0
 TRAAK_475 0.0 0.0 A 0.0 0.0
 TRAAK_476 0.0 0.0 A 0.0 0.0
 TRAAK_477 0.0 0.0 A 0.0 0.0
 TRAAK_478 0.0 0.0 A 0.0 0.0
 TRAAK_479 0.0 0.0 A 0.0 0.0
 TRAAK_480 0.0 0.0 A 0.0 0.0
 TRAAK_481 0.0 0.0 A 0.0 0.0
 TRAAK_482 0.0 0.0 A 0.0 0.0
 TRAAK_483 0.0 0.0 A 0.0 0.0
 TRAAK_484 0.0 0.0 A 0.0 0.0
 TRAAK_485 0.0 0.0 A 0.0 0.0
 TRAAK_486 0.0 0.0 A 0.0 0.0
 TRAAK_487 0.0 0.0 A 0.0 0.0
 TRAAK_488 0.0 0.0 A 0.0 0.0
 TRAAK_489 0.0 0.0 A 0.0 0.0
 TRAAK_490 0.0 0.0 A 0.0 0.0
 TRAAK_491 0.0 0.0 A 0.0 0.0
 TRAAK_492 0.0 0.0 A 0.0 0.0
 TRAAK_493 0.0 0.0 A 0.0 0.0
 TRAAK_494 0.0 0.0 A 0.0 0.0
 TRAAK_495 0.0 0.0 A 0.0 0.0
 TRAAK_496 0.0 0.0 A 0.0 0.0
 TRAAK_497 0.0 0.0 A 0.0 0.0
 TRAAK_498 0.0 0.0 A 0.0 0.0
 TRAAK_499 0.0 0.0 A 0.0 0.0
 TRAAK_500 0.0 0.0 A 0.0 0.0
 TRAAK_501 0.0 0.0 A 0.0 0.0
 TRAAK_502 0.0 0.0 A 0.0 0.0
 TRAAK_503 0.0 0.0 A 0.0 0.0
 TRAAK_504 0.0 0.0 A 0.0 0.0
 TRAAK_505 0.0 0.0 A 0.0 0.0
 TRAAK_506 0.0 0.0 A 0.0 0.0
 TRAAK_507 0.0 0.0 A 0.0 0.0
 TRAAK_508 0.0 0.0 A 0.0 0.0
 TRAAK_509 0.0 0.0 A 0.0 0.0
 TRAAK_510 0.0 0.0 A 0.0 0.0
 TRAAK_511 0.0 0.0 A 0.0 0.0
 TRAAK_512 0.0 0.0 A 0.0 0.0
 TRAAK_513 0.0 0.0 A 0.0 0.0
 TRAAK_514 0.0 0.0 A 0.0 0.0
 TRAAK_515 0.0 0.0 A 0.0 0.0
 TRAAK_516 0.0 0.0 A 0.0 0.0
 TRAAK_517 0.0 0.0 A 0.0 0.0
 TRAAK_518 0.0 0.0 A 0.0 0.0
