#include "FF/martini_v3.0.0.itp"
#include "GlnBP_params.itp"
#include "GlnBP_stateA.itp"
#include "FF/martini_v3.0.0_solvents_v1.itp"
#include "FF/martini_v3.0.0_ions_v1.itp"

[ system ]
Title of the system

[ molecules ]
GlnBP_stateA       1
W             6109
NA              67
CL              64
