#include "FF/martini_v3.0.0.itp"
#include "TRAAK.itp"
#include "TRAAK_params.itp"
#include "FF/martini_v3.0.0_phospholipids_v1.itp"
#include "FF/martini_v3.0.0_solvents_v1.itp"
#include "FF/martini_v3.0.0_ions_v1.itp"

[ system ]
Title of the system

[ molecules ]
TRAAK    1
POPC           146; 161 - 146
POPC           152; 159 - 152
W             7131
NA              78; 90 - 12
CL              66
