[ atomtypes ]
molecule_1 0.0 0 A 0.00000000 0.00000000 
molecule_2 0.0 0 A 0.00000000 0.00000000 
molecule_3 0.0 0 A 0.00000000 0.00000000 
molecule_4 0.0 0 A 0.00000000 0.00000000 
molecule_5 0.0 0 A 0.00000000 0.00000000 
molecule_6 0.0 0 A 0.00000000 0.00000000 
molecule_7 0.0 0 A 0.00000000 0.00000000 
molecule_8 0.0 0 A 0.00000000 0.00000000 
molecule_9 0.0 0 A 0.00000000 0.00000000 
molecule_10 0.0 0 A 0.00000000 0.00000000 
molecule_11 0.0 0 A 0.00000000 0.00000000 
molecule_12 0.0 0 A 0.00000000 0.00000000 
molecule_13 0.0 0 A 0.00000000 0.00000000 
molecule_14 0.0 0 A 0.00000000 0.00000000 
molecule_15 0.0 0 A 0.00000000 0.00000000 
molecule_16 0.0 0 A 0.00000000 0.00000000 
molecule_17 0.0 0 A 0.00000000 0.00000000 
molecule_18 0.0 0 A 0.00000000 0.00000000 
molecule_19 0.0 0 A 0.00000000 0.00000000 
molecule_20 0.0 0 A 0.00000000 0.00000000 
molecule_21 0.0 0 A 0.00000000 0.00000000 
molecule_22 0.0 0 A 0.00000000 0.00000000 
molecule_23 0.0 0 A 0.00000000 0.00000000 
molecule_24 0.0 0 A 0.00000000 0.00000000 
molecule_25 0.0 0 A 0.00000000 0.00000000 
molecule_26 0.0 0 A 0.00000000 0.00000000 
molecule_27 0.0 0 A 0.00000000 0.00000000 
molecule_28 0.0 0 A 0.00000000 0.00000000 
molecule_29 0.0 0 A 0.00000000 0.00000000 
molecule_30 0.0 0 A 0.00000000 0.00000000 
molecule_31 0.0 0 A 0.00000000 0.00000000 
molecule_32 0.0 0 A 0.00000000 0.00000000 
molecule_33 0.0 0 A 0.00000000 0.00000000 
molecule_34 0.0 0 A 0.00000000 0.00000000 
molecule_35 0.0 0 A 0.00000000 0.00000000 
molecule_36 0.0 0 A 0.00000000 0.00000000 
molecule_37 0.0 0 A 0.00000000 0.00000000 
molecule_38 0.0 0 A 0.00000000 0.00000000 
molecule_39 0.0 0 A 0.00000000 0.00000000 
molecule_40 0.0 0 A 0.00000000 0.00000000 
molecule_41 0.0 0 A 0.00000000 0.00000000 
molecule_42 0.0 0 A 0.00000000 0.00000000 
molecule_43 0.0 0 A 0.00000000 0.00000000 
molecule_44 0.0 0 A 0.00000000 0.00000000 
molecule_45 0.0 0 A 0.00000000 0.00000000 
molecule_46 0.0 0 A 0.00000000 0.00000000 
molecule_47 0.0 0 A 0.00000000 0.00000000 
molecule_48 0.0 0 A 0.00000000 0.00000000 
molecule_49 0.0 0 A 0.00000000 0.00000000 
molecule_50 0.0 0 A 0.00000000 0.00000000 
molecule_51 0.0 0 A 0.00000000 0.00000000 
molecule_52 0.0 0 A 0.00000000 0.00000000 
molecule_53 0.0 0 A 0.00000000 0.00000000 
molecule_54 0.0 0 A 0.00000000 0.00000000 
molecule_55 0.0 0 A 0.00000000 0.00000000 
molecule_56 0.0 0 A 0.00000000 0.00000000 
molecule_57 0.0 0 A 0.00000000 0.00000000 
molecule_58 0.0 0 A 0.00000000 0.00000000 
molecule_59 0.0 0 A 0.00000000 0.00000000 
molecule_60 0.0 0 A 0.00000000 0.00000000 
molecule_61 0.0 0 A 0.00000000 0.00000000 
molecule_62 0.0 0 A 0.00000000 0.00000000 
molecule_63 0.0 0 A 0.00000000 0.00000000 
molecule_64 0.0 0 A 0.00000000 0.00000000 
molecule_65 0.0 0 A 0.00000000 0.00000000 
molecule_66 0.0 0 A 0.00000000 0.00000000 
molecule_67 0.0 0 A 0.00000000 0.00000000 
molecule_68 0.0 0 A 0.00000000 0.00000000 
molecule_69 0.0 0 A 0.00000000 0.00000000 
molecule_70 0.0 0 A 0.00000000 0.00000000 
molecule_71 0.0 0 A 0.00000000 0.00000000 
molecule_72 0.0 0 A 0.00000000 0.00000000 
molecule_73 0.0 0 A 0.00000000 0.00000000 
molecule_74 0.0 0 A 0.00000000 0.00000000 
molecule_75 0.0 0 A 0.00000000 0.00000000 
molecule_76 0.0 0 A 0.00000000 0.00000000 
molecule_77 0.0 0 A 0.00000000 0.00000000 
molecule_78 0.0 0 A 0.00000000 0.00000000 
molecule_79 0.0 0 A 0.00000000 0.00000000 
molecule_80 0.0 0 A 0.00000000 0.00000000 
molecule_81 0.0 0 A 0.00000000 0.00000000 
molecule_82 0.0 0 A 0.00000000 0.00000000 
molecule_83 0.0 0 A 0.00000000 0.00000000 
molecule_84 0.0 0 A 0.00000000 0.00000000 
molecule_85 0.0 0 A 0.00000000 0.00000000 
molecule_86 0.0 0 A 0.00000000 0.00000000 
molecule_87 0.0 0 A 0.00000000 0.00000000 
molecule_88 0.0 0 A 0.00000000 0.00000000 
molecule_89 0.0 0 A 0.00000000 0.00000000 
molecule_90 0.0 0 A 0.00000000 0.00000000 
molecule_91 0.0 0 A 0.00000000 0.00000000 
molecule_92 0.0 0 A 0.00000000 0.00000000 
molecule_93 0.0 0 A 0.00000000 0.00000000 
molecule_94 0.0 0 A 0.00000000 0.00000000 
molecule_95 0.0 0 A 0.00000000 0.00000000 
molecule_96 0.0 0 A 0.00000000 0.00000000 
molecule_97 0.0 0 A 0.00000000 0.00000000 
molecule_98 0.0 0 A 0.00000000 0.00000000 
molecule_99 0.0 0 A 0.00000000 0.00000000 
molecule_100 0.0 0 A 0.00000000 0.00000000 
molecule_101 0.0 0 A 0.00000000 0.00000000 
molecule_102 0.0 0 A 0.00000000 0.00000000 
molecule_103 0.0 0 A 0.00000000 0.00000000 
molecule_104 0.0 0 A 0.00000000 0.00000000 
molecule_105 0.0 0 A 0.00000000 0.00000000 
molecule_106 0.0 0 A 0.00000000 0.00000000 
molecule_107 0.0 0 A 0.00000000 0.00000000 
molecule_108 0.0 0 A 0.00000000 0.00000000 
molecule_109 0.0 0 A 0.00000000 0.00000000 
molecule_110 0.0 0 A 0.00000000 0.00000000 
molecule_111 0.0 0 A 0.00000000 0.00000000 
molecule_112 0.0 0 A 0.00000000 0.00000000 
molecule_113 0.0 0 A 0.00000000 0.00000000 
molecule_114 0.0 0 A 0.00000000 0.00000000 
molecule_115 0.0 0 A 0.00000000 0.00000000 
molecule_116 0.0 0 A 0.00000000 0.00000000 
molecule_117 0.0 0 A 0.00000000 0.00000000 
molecule_118 0.0 0 A 0.00000000 0.00000000 
molecule_119 0.0 0 A 0.00000000 0.00000000 
molecule_120 0.0 0 A 0.00000000 0.00000000 
molecule_121 0.0 0 A 0.00000000 0.00000000 
molecule_122 0.0 0 A 0.00000000 0.00000000 
molecule_123 0.0 0 A 0.00000000 0.00000000 
molecule_124 0.0 0 A 0.00000000 0.00000000 
molecule_125 0.0 0 A 0.00000000 0.00000000 
molecule_126 0.0 0 A 0.00000000 0.00000000 
molecule_127 0.0 0 A 0.00000000 0.00000000 
molecule_128 0.0 0 A 0.00000000 0.00000000 
molecule_129 0.0 0 A 0.00000000 0.00000000 
molecule_130 0.0 0 A 0.00000000 0.00000000 
molecule_131 0.0 0 A 0.00000000 0.00000000 
molecule_132 0.0 0 A 0.00000000 0.00000000 
molecule_133 0.0 0 A 0.00000000 0.00000000 
molecule_134 0.0 0 A 0.00000000 0.00000000 
molecule_135 0.0 0 A 0.00000000 0.00000000 
molecule_136 0.0 0 A 0.00000000 0.00000000 
molecule_137 0.0 0 A 0.00000000 0.00000000 
molecule_138 0.0 0 A 0.00000000 0.00000000 
molecule_139 0.0 0 A 0.00000000 0.00000000 
molecule_140 0.0 0 A 0.00000000 0.00000000 
molecule_141 0.0 0 A 0.00000000 0.00000000 
molecule_142 0.0 0 A 0.00000000 0.00000000 
molecule_143 0.0 0 A 0.00000000 0.00000000 
molecule_144 0.0 0 A 0.00000000 0.00000000 
molecule_145 0.0 0 A 0.00000000 0.00000000 
molecule_146 0.0 0 A 0.00000000 0.00000000 
molecule_147 0.0 0 A 0.00000000 0.00000000 
molecule_148 0.0 0 A 0.00000000 0.00000000 
molecule_149 0.0 0 A 0.00000000 0.00000000 
molecule_150 0.0 0 A 0.00000000 0.00000000 
molecule_151 0.0 0 A 0.00000000 0.00000000 
molecule_152 0.0 0 A 0.00000000 0.00000000 
molecule_153 0.0 0 A 0.00000000 0.00000000 
molecule_154 0.0 0 A 0.00000000 0.00000000 
molecule_155 0.0 0 A 0.00000000 0.00000000 
molecule_156 0.0 0 A 0.00000000 0.00000000 
molecule_157 0.0 0 A 0.00000000 0.00000000 
molecule_158 0.0 0 A 0.00000000 0.00000000 
molecule_159 0.0 0 A 0.00000000 0.00000000 
molecule_160 0.0 0 A 0.00000000 0.00000000 
molecule_161 0.0 0 A 0.00000000 0.00000000 
molecule_162 0.0 0 A 0.00000000 0.00000000 
molecule_163 0.0 0 A 0.00000000 0.00000000 
molecule_164 0.0 0 A 0.00000000 0.00000000 
molecule_165 0.0 0 A 0.00000000 0.00000000 
molecule_166 0.0 0 A 0.00000000 0.00000000 
molecule_167 0.0 0 A 0.00000000 0.00000000 
molecule_168 0.0 0 A 0.00000000 0.00000000 
molecule_169 0.0 0 A 0.00000000 0.00000000 
molecule_170 0.0 0 A 0.00000000 0.00000000 
molecule_171 0.0 0 A 0.00000000 0.00000000 
molecule_172 0.0 0 A 0.00000000 0.00000000 
molecule_173 0.0 0 A 0.00000000 0.00000000 
molecule_174 0.0 0 A 0.00000000 0.00000000 
molecule_175 0.0 0 A 0.00000000 0.00000000 
molecule_176 0.0 0 A 0.00000000 0.00000000 
molecule_177 0.0 0 A 0.00000000 0.00000000 
molecule_178 0.0 0 A 0.00000000 0.00000000 
molecule_179 0.0 0 A 0.00000000 0.00000000 
molecule_180 0.0 0 A 0.00000000 0.00000000 
molecule_181 0.0 0 A 0.00000000 0.00000000 
molecule_182 0.0 0 A 0.00000000 0.00000000 
molecule_183 0.0 0 A 0.00000000 0.00000000 
molecule_184 0.0 0 A 0.00000000 0.00000000 
molecule_185 0.0 0 A 0.00000000 0.00000000 
molecule_186 0.0 0 A 0.00000000 0.00000000 
molecule_187 0.0 0 A 0.00000000 0.00000000 
molecule_188 0.0 0 A 0.00000000 0.00000000 
molecule_189 0.0 0 A 0.00000000 0.00000000 
molecule_190 0.0 0 A 0.00000000 0.00000000 
molecule_191 0.0 0 A 0.00000000 0.00000000 
molecule_192 0.0 0 A 0.00000000 0.00000000 
molecule_193 0.0 0 A 0.00000000 0.00000000 
molecule_194 0.0 0 A 0.00000000 0.00000000 
molecule_195 0.0 0 A 0.00000000 0.00000000 
molecule_196 0.0 0 A 0.00000000 0.00000000 
molecule_197 0.0 0 A 0.00000000 0.00000000 
molecule_198 0.0 0 A 0.00000000 0.00000000 
molecule_199 0.0 0 A 0.00000000 0.00000000 
molecule_200 0.0 0 A 0.00000000 0.00000000 
molecule_201 0.0 0 A 0.00000000 0.00000000 
molecule_202 0.0 0 A 0.00000000 0.00000000 
molecule_203 0.0 0 A 0.00000000 0.00000000 
molecule_204 0.0 0 A 0.00000000 0.00000000 
molecule_205 0.0 0 A 0.00000000 0.00000000 
molecule_206 0.0 0 A 0.00000000 0.00000000 
molecule_207 0.0 0 A 0.00000000 0.00000000 
molecule_208 0.0 0 A 0.00000000 0.00000000 
molecule_209 0.0 0 A 0.00000000 0.00000000 
molecule_210 0.0 0 A 0.00000000 0.00000000 
molecule_211 0.0 0 A 0.00000000 0.00000000 
molecule_212 0.0 0 A 0.00000000 0.00000000 
molecule_213 0.0 0 A 0.00000000 0.00000000 
molecule_214 0.0 0 A 0.00000000 0.00000000 
molecule_215 0.0 0 A 0.00000000 0.00000000 
molecule_216 0.0 0 A 0.00000000 0.00000000 
molecule_217 0.0 0 A 0.00000000 0.00000000 
molecule_218 0.0 0 A 0.00000000 0.00000000 
molecule_219 0.0 0 A 0.00000000 0.00000000 
molecule_220 0.0 0 A 0.00000000 0.00000000 
molecule_221 0.0 0 A 0.00000000 0.00000000 
molecule_222 0.0 0 A 0.00000000 0.00000000 
molecule_223 0.0 0 A 0.00000000 0.00000000 
molecule_224 0.0 0 A 0.00000000 0.00000000 
molecule_225 0.0 0 A 0.00000000 0.00000000 
molecule_226 0.0 0 A 0.00000000 0.00000000 
molecule_227 0.0 0 A 0.00000000 0.00000000 
molecule_228 0.0 0 A 0.00000000 0.00000000 
molecule_229 0.0 0 A 0.00000000 0.00000000 
molecule_230 0.0 0 A 0.00000000 0.00000000 
molecule_231 0.0 0 A 0.00000000 0.00000000 
molecule_232 0.0 0 A 0.00000000 0.00000000 
molecule_233 0.0 0 A 0.00000000 0.00000000 
molecule_234 0.0 0 A 0.00000000 0.00000000 
molecule_235 0.0 0 A 0.00000000 0.00000000 
molecule_236 0.0 0 A 0.00000000 0.00000000 
molecule_237 0.0 0 A 0.00000000 0.00000000 
molecule_238 0.0 0 A 0.00000000 0.00000000 
molecule_239 0.0 0 A 0.00000000 0.00000000 
molecule_240 0.0 0 A 0.00000000 0.00000000 
molecule_241 0.0 0 A 0.00000000 0.00000000 
molecule_242 0.0 0 A 0.00000000 0.00000000 
molecule_243 0.0 0 A 0.00000000 0.00000000 
molecule_244 0.0 0 A 0.00000000 0.00000000 
molecule_245 0.0 0 A 0.00000000 0.00000000 
molecule_246 0.0 0 A 0.00000000 0.00000000 
molecule_247 0.0 0 A 0.00000000 0.00000000 
molecule_248 0.0 0 A 0.00000000 0.00000000 
molecule_249 0.0 0 A 0.00000000 0.00000000 
molecule_250 0.0 0 A 0.00000000 0.00000000 
molecule_251 0.0 0 A 0.00000000 0.00000000 
molecule_252 0.0 0 A 0.00000000 0.00000000 
molecule_253 0.0 0 A 0.00000000 0.00000000 
molecule_254 0.0 0 A 0.00000000 0.00000000 
molecule_255 0.0 0 A 0.00000000 0.00000000 
molecule_256 0.0 0 A 0.00000000 0.00000000 
molecule_257 0.0 0 A 0.00000000 0.00000000 
molecule_258 0.0 0 A 0.00000000 0.00000000 
molecule_259 0.0 0 A 0.00000000 0.00000000 
molecule_260 0.0 0 A 0.00000000 0.00000000 
molecule_261 0.0 0 A 0.00000000 0.00000000 
molecule_262 0.0 0 A 0.00000000 0.00000000 
molecule_263 0.0 0 A 0.00000000 0.00000000 
molecule_264 0.0 0 A 0.00000000 0.00000000 
molecule_265 0.0 0 A 0.00000000 0.00000000 
molecule_266 0.0 0 A 0.00000000 0.00000000 
molecule_267 0.0 0 A 0.00000000 0.00000000 
molecule_268 0.0 0 A 0.00000000 0.00000000 
molecule_269 0.0 0 A 0.00000000 0.00000000 
molecule_270 0.0 0 A 0.00000000 0.00000000 
molecule_271 0.0 0 A 0.00000000 0.00000000 
molecule_272 0.0 0 A 0.00000000 0.00000000 
molecule_273 0.0 0 A 0.00000000 0.00000000 
molecule_274 0.0 0 A 0.00000000 0.00000000 
molecule_275 0.0 0 A 0.00000000 0.00000000 
molecule_276 0.0 0 A 0.00000000 0.00000000 
molecule_277 0.0 0 A 0.00000000 0.00000000 
molecule_278 0.0 0 A 0.00000000 0.00000000 
molecule_279 0.0 0 A 0.00000000 0.00000000 
molecule_280 0.0 0 A 0.00000000 0.00000000 
molecule_281 0.0 0 A 0.00000000 0.00000000 
molecule_282 0.0 0 A 0.00000000 0.00000000 
molecule_283 0.0 0 A 0.00000000 0.00000000 
molecule_284 0.0 0 A 0.00000000 0.00000000 
molecule_285 0.0 0 A 0.00000000 0.00000000 
molecule_286 0.0 0 A 0.00000000 0.00000000 
molecule_287 0.0 0 A 0.00000000 0.00000000 
molecule_288 0.0 0 A 0.00000000 0.00000000 
molecule_289 0.0 0 A 0.00000000 0.00000000 
molecule_290 0.0 0 A 0.00000000 0.00000000 
molecule_291 0.0 0 A 0.00000000 0.00000000 
molecule_292 0.0 0 A 0.00000000 0.00000000 
molecule_293 0.0 0 A 0.00000000 0.00000000 
molecule_294 0.0 0 A 0.00000000 0.00000000 
molecule_295 0.0 0 A 0.00000000 0.00000000 
molecule_296 0.0 0 A 0.00000000 0.00000000 
molecule_297 0.0 0 A 0.00000000 0.00000000 
molecule_298 0.0 0 A 0.00000000 0.00000000 
molecule_299 0.0 0 A 0.00000000 0.00000000 
molecule_300 0.0 0 A 0.00000000 0.00000000 
molecule_301 0.0 0 A 0.00000000 0.00000000 
molecule_302 0.0 0 A 0.00000000 0.00000000 
molecule_303 0.0 0 A 0.00000000 0.00000000 
molecule_304 0.0 0 A 0.00000000 0.00000000 
molecule_305 0.0 0 A 0.00000000 0.00000000 
molecule_306 0.0 0 A 0.00000000 0.00000000 
molecule_307 0.0 0 A 0.00000000 0.00000000 
molecule_308 0.0 0 A 0.00000000 0.00000000 
molecule_309 0.0 0 A 0.00000000 0.00000000 
molecule_310 0.0 0 A 0.00000000 0.00000000 
molecule_311 0.0 0 A 0.00000000 0.00000000 
molecule_312 0.0 0 A 0.00000000 0.00000000 
molecule_313 0.0 0 A 0.00000000 0.00000000 
molecule_314 0.0 0 A 0.00000000 0.00000000 
molecule_315 0.0 0 A 0.00000000 0.00000000 
molecule_316 0.0 0 A 0.00000000 0.00000000 
molecule_317 0.0 0 A 0.00000000 0.00000000 
molecule_318 0.0 0 A 0.00000000 0.00000000 
molecule_319 0.0 0 A 0.00000000 0.00000000 
molecule_320 0.0 0 A 0.00000000 0.00000000 
molecule_321 0.0 0 A 0.00000000 0.00000000 
molecule_322 0.0 0 A 0.00000000 0.00000000 
molecule_323 0.0 0 A 0.00000000 0.00000000 
molecule_324 0.0 0 A 0.00000000 0.00000000 
molecule_325 0.0 0 A 0.00000000 0.00000000 
molecule_326 0.0 0 A 0.00000000 0.00000000 
molecule_327 0.0 0 A 0.00000000 0.00000000 
molecule_328 0.0 0 A 0.00000000 0.00000000 
molecule_329 0.0 0 A 0.00000000 0.00000000 
molecule_330 0.0 0 A 0.00000000 0.00000000 
molecule_331 0.0 0 A 0.00000000 0.00000000 
molecule_332 0.0 0 A 0.00000000 0.00000000 
molecule_333 0.0 0 A 0.00000000 0.00000000 
molecule_334 0.0 0 A 0.00000000 0.00000000 
molecule_335 0.0 0 A 0.00000000 0.00000000 
molecule_336 0.0 0 A 0.00000000 0.00000000 
molecule_337 0.0 0 A 0.00000000 0.00000000 
molecule_338 0.0 0 A 0.00000000 0.00000000 
molecule_339 0.0 0 A 0.00000000 0.00000000 
molecule_340 0.0 0 A 0.00000000 0.00000000 
molecule_341 0.0 0 A 0.00000000 0.00000000 
molecule_342 0.0 0 A 0.00000000 0.00000000 
molecule_343 0.0 0 A 0.00000000 0.00000000 
molecule_344 0.0 0 A 0.00000000 0.00000000 
molecule_345 0.0 0 A 0.00000000 0.00000000 
molecule_346 0.0 0 A 0.00000000 0.00000000 
molecule_347 0.0 0 A 0.00000000 0.00000000 
molecule_348 0.0 0 A 0.00000000 0.00000000 
molecule_349 0.0 0 A 0.00000000 0.00000000 
molecule_350 0.0 0 A 0.00000000 0.00000000 
molecule_351 0.0 0 A 0.00000000 0.00000000 
molecule_352 0.0 0 A 0.00000000 0.00000000 
molecule_353 0.0 0 A 0.00000000 0.00000000 
molecule_354 0.0 0 A 0.00000000 0.00000000 
molecule_355 0.0 0 A 0.00000000 0.00000000 
molecule_356 0.0 0 A 0.00000000 0.00000000 
molecule_357 0.0 0 A 0.00000000 0.00000000 
molecule_358 0.0 0 A 0.00000000 0.00000000 
molecule_359 0.0 0 A 0.00000000 0.00000000 
molecule_360 0.0 0 A 0.00000000 0.00000000 
molecule_361 0.0 0 A 0.00000000 0.00000000 
molecule_362 0.0 0 A 0.00000000 0.00000000 
molecule_363 0.0 0 A 0.00000000 0.00000000 
molecule_364 0.0 0 A 0.00000000 0.00000000 
molecule_365 0.0 0 A 0.00000000 0.00000000 
molecule_366 0.0 0 A 0.00000000 0.00000000 
molecule_367 0.0 0 A 0.00000000 0.00000000 
molecule_368 0.0 0 A 0.00000000 0.00000000 
molecule_369 0.0 0 A 0.00000000 0.00000000 
molecule_370 0.0 0 A 0.00000000 0.00000000 
molecule_371 0.0 0 A 0.00000000 0.00000000 
molecule_372 0.0 0 A 0.00000000 0.00000000 
molecule_373 0.0 0 A 0.00000000 0.00000000 
molecule_374 0.0 0 A 0.00000000 0.00000000 
molecule_375 0.0 0 A 0.00000000 0.00000000 
molecule_376 0.0 0 A 0.00000000 0.00000000 
molecule_377 0.0 0 A 0.00000000 0.00000000 
molecule_378 0.0 0 A 0.00000000 0.00000000 
molecule_379 0.0 0 A 0.00000000 0.00000000 
molecule_380 0.0 0 A 0.00000000 0.00000000 
molecule_381 0.0 0 A 0.00000000 0.00000000 
molecule_382 0.0 0 A 0.00000000 0.00000000 
molecule_383 0.0 0 A 0.00000000 0.00000000 
molecule_384 0.0 0 A 0.00000000 0.00000000 
molecule_385 0.0 0 A 0.00000000 0.00000000 
molecule_386 0.0 0 A 0.00000000 0.00000000 
molecule_387 0.0 0 A 0.00000000 0.00000000 
molecule_388 0.0 0 A 0.00000000 0.00000000 
molecule_389 0.0 0 A 0.00000000 0.00000000 
molecule_390 0.0 0 A 0.00000000 0.00000000 
molecule_391 0.0 0 A 0.00000000 0.00000000 
molecule_392 0.0 0 A 0.00000000 0.00000000 
molecule_393 0.0 0 A 0.00000000 0.00000000 
molecule_394 0.0 0 A 0.00000000 0.00000000 
molecule_395 0.0 0 A 0.00000000 0.00000000 
molecule_396 0.0 0 A 0.00000000 0.00000000 
molecule_397 0.0 0 A 0.00000000 0.00000000 
molecule_398 0.0 0 A 0.00000000 0.00000000 
molecule_399 0.0 0 A 0.00000000 0.00000000 
molecule_400 0.0 0 A 0.00000000 0.00000000 
molecule_401 0.0 0 A 0.00000000 0.00000000 
molecule_402 0.0 0 A 0.00000000 0.00000000 
molecule_403 0.0 0 A 0.00000000 0.00000000 
molecule_404 0.0 0 A 0.00000000 0.00000000 
molecule_405 0.0 0 A 0.00000000 0.00000000 
molecule_406 0.0 0 A 0.00000000 0.00000000 
molecule_407 0.0 0 A 0.00000000 0.00000000 
molecule_408 0.0 0 A 0.00000000 0.00000000 
molecule_409 0.0 0 A 0.00000000 0.00000000 
molecule_410 0.0 0 A 0.00000000 0.00000000 
molecule_411 0.0 0 A 0.00000000 0.00000000 
molecule_412 0.0 0 A 0.00000000 0.00000000 
molecule_413 0.0 0 A 0.00000000 0.00000000 
molecule_414 0.0 0 A 0.00000000 0.00000000 
molecule_415 0.0 0 A 0.00000000 0.00000000 
molecule_416 0.0 0 A 0.00000000 0.00000000 
molecule_417 0.0 0 A 0.00000000 0.00000000 
molecule_418 0.0 0 A 0.00000000 0.00000000 
molecule_419 0.0 0 A 0.00000000 0.00000000 
molecule_420 0.0 0 A 0.00000000 0.00000000 
molecule_421 0.0 0 A 0.00000000 0.00000000 
molecule_422 0.0 0 A 0.00000000 0.00000000 
molecule_423 0.0 0 A 0.00000000 0.00000000 
molecule_424 0.0 0 A 0.00000000 0.00000000 
molecule_425 0.0 0 A 0.00000000 0.00000000 
molecule_426 0.0 0 A 0.00000000 0.00000000 
molecule_427 0.0 0 A 0.00000000 0.00000000 
molecule_428 0.0 0 A 0.00000000 0.00000000 
molecule_429 0.0 0 A 0.00000000 0.00000000 
molecule_430 0.0 0 A 0.00000000 0.00000000 
molecule_431 0.0 0 A 0.00000000 0.00000000 
molecule_432 0.0 0 A 0.00000000 0.00000000 
molecule_433 0.0 0 A 0.00000000 0.00000000 
molecule_434 0.0 0 A 0.00000000 0.00000000 
molecule_435 0.0 0 A 0.00000000 0.00000000 
molecule_436 0.0 0 A 0.00000000 0.00000000 
molecule_437 0.0 0 A 0.00000000 0.00000000 
molecule_438 0.0 0 A 0.00000000 0.00000000 
molecule_439 0.0 0 A 0.00000000 0.00000000 
molecule_440 0.0 0 A 0.00000000 0.00000000 
molecule_441 0.0 0 A 0.00000000 0.00000000 
molecule_442 0.0 0 A 0.00000000 0.00000000 
molecule_443 0.0 0 A 0.00000000 0.00000000 
molecule_444 0.0 0 A 0.00000000 0.00000000 
molecule_445 0.0 0 A 0.00000000 0.00000000 
molecule_446 0.0 0 A 0.00000000 0.00000000 
molecule_447 0.0 0 A 0.00000000 0.00000000 
molecule_448 0.0 0 A 0.00000000 0.00000000 
molecule_449 0.0 0 A 0.00000000 0.00000000 
molecule_450 0.0 0 A 0.00000000 0.00000000 
molecule_451 0.0 0 A 0.00000000 0.00000000 
molecule_452 0.0 0 A 0.00000000 0.00000000 
molecule_453 0.0 0 A 0.00000000 0.00000000 
molecule_454 0.0 0 A 0.00000000 0.00000000 
molecule_455 0.0 0 A 0.00000000 0.00000000 
molecule_456 0.0 0 A 0.00000000 0.00000000 
molecule_457 0.0 0 A 0.00000000 0.00000000 
molecule_458 0.0 0 A 0.00000000 0.00000000 
molecule_459 0.0 0 A 0.00000000 0.00000000 
molecule_460 0.0 0 A 0.00000000 0.00000000 
molecule_461 0.0 0 A 0.00000000 0.00000000 
molecule_462 0.0 0 A 0.00000000 0.00000000 
molecule_463 0.0 0 A 0.00000000 0.00000000 
molecule_464 0.0 0 A 0.00000000 0.00000000 
molecule_465 0.0 0 A 0.00000000 0.00000000 
molecule_466 0.0 0 A 0.00000000 0.00000000 
molecule_467 0.0 0 A 0.00000000 0.00000000 
molecule_468 0.0 0 A 0.00000000 0.00000000 
molecule_469 0.0 0 A 0.00000000 0.00000000 
molecule_470 0.0 0 A 0.00000000 0.00000000 
molecule_471 0.0 0 A 0.00000000 0.00000000 
molecule_472 0.0 0 A 0.00000000 0.00000000 
molecule_473 0.0 0 A 0.00000000 0.00000000 
molecule_474 0.0 0 A 0.00000000 0.00000000 
molecule_475 0.0 0 A 0.00000000 0.00000000 
molecule_476 0.0 0 A 0.00000000 0.00000000 
molecule_477 0.0 0 A 0.00000000 0.00000000 
molecule_478 0.0 0 A 0.00000000 0.00000000 
molecule_479 0.0 0 A 0.00000000 0.00000000 
molecule_480 0.0 0 A 0.00000000 0.00000000 
molecule_481 0.0 0 A 0.00000000 0.00000000 
molecule_482 0.0 0 A 0.00000000 0.00000000 
molecule_483 0.0 0 A 0.00000000 0.00000000 
molecule_484 0.0 0 A 0.00000000 0.00000000 
molecule_485 0.0 0 A 0.00000000 0.00000000 
molecule_486 0.0 0 A 0.00000000 0.00000000 
molecule_487 0.0 0 A 0.00000000 0.00000000 
molecule_488 0.0 0 A 0.00000000 0.00000000 
molecule_489 0.0 0 A 0.00000000 0.00000000 
molecule_490 0.0 0 A 0.00000000 0.00000000 
molecule_491 0.0 0 A 0.00000000 0.00000000 
molecule_492 0.0 0 A 0.00000000 0.00000000 
molecule_493 0.0 0 A 0.00000000 0.00000000 
molecule_494 0.0 0 A 0.00000000 0.00000000 
molecule_495 0.0 0 A 0.00000000 0.00000000 
molecule_496 0.0 0 A 0.00000000 0.00000000 
molecule_497 0.0 0 A 0.00000000 0.00000000 
molecule_498 0.0 0 A 0.00000000 0.00000000 
molecule_499 0.0 0 A 0.00000000 0.00000000 
molecule_500 0.0 0 A 0.00000000 0.00000000 
molecule_501 0.0 0 A 0.00000000 0.00000000 
molecule_502 0.0 0 A 0.00000000 0.00000000 
molecule_503 0.0 0 A 0.00000000 0.00000000 
molecule_504 0.0 0 A 0.00000000 0.00000000 
molecule_505 0.0 0 A 0.00000000 0.00000000 
molecule_506 0.0 0 A 0.00000000 0.00000000 
molecule_507 0.0 0 A 0.00000000 0.00000000 
molecule_508 0.0 0 A 0.00000000 0.00000000 
molecule_509 0.0 0 A 0.00000000 0.00000000 
molecule_510 0.0 0 A 0.00000000 0.00000000 
molecule_511 0.0 0 A 0.00000000 0.00000000 
molecule_512 0.0 0 A 0.00000000 0.00000000 
molecule_513 0.0 0 A 0.00000000 0.00000000 
molecule_514 0.0 0 A 0.00000000 0.00000000 
molecule_515 0.0 0 A 0.00000000 0.00000000 
molecule_516 0.0 0 A 0.00000000 0.00000000 
molecule_517 0.0 0 A 0.00000000 0.00000000 
molecule_518 0.0 0 A 0.00000000 0.00000000 
